version 2
run mlallreduce_4workers-0-20260504-00:20:38-25554
attr configname mlallreduce_4workers
attr datetime 20260504-00:20:38
attr experiment mlallreduce_4workers
attr inifile Test.ini
attr iterationvars ""
attr iterationvars2 $repetition=0
attr measurement ""
attr network FatTree
attr processid 25554
attr repetition 0
attr replication #0
attr resultdir results
attr runnumber 0
attr seedset 1

vector 0  FatTree.Pod[0].racks[0].servers[0].vms[0].tcpApp[0]  fct:vector  ETV
attr source  flowCompleted
attr title  "AllReduce iteration FCT (s), vector"
vector 1  FatTree.Pod[0].racks[0].servers[0].vms[0].tcpApp[0]  throughput:vector  ETV
attr source  throughput
attr title  "AllReduce iteration throughput (Bps), vector"
vector 6  FatTree.Pod[3].racks[0].servers[0].vms[0].tcpApp[0]  fct:vector  ETV
attr source  flowCompleted
attr title  "AllReduce iteration FCT (s), vector"
vector 7  FatTree.Pod[3].racks[0].servers[0].vms[0].tcpApp[0]  throughput:vector  ETV
attr source  throughput
attr title  "AllReduce iteration throughput (Bps), vector"
vector 2  FatTree.Pod[1].racks[0].servers[0].vms[0].tcpApp[0]  fct:vector  ETV
attr source  flowCompleted
attr title  "AllReduce iteration FCT (s), vector"
vector 3  FatTree.Pod[1].racks[0].servers[0].vms[0].tcpApp[0]  throughput:vector  ETV
attr source  throughput
attr title  "AllReduce iteration throughput (Bps), vector"
vector 4  FatTree.Pod[2].racks[0].servers[0].vms[0].tcpApp[0]  fct:vector  ETV
attr source  flowCompleted
attr title  "AllReduce iteration FCT (s), vector"
vector 5  FatTree.Pod[2].racks[0].servers[0].vms[0].tcpApp[0]  throughput:vector  ETV
attr source  throughput
attr title  "AllReduce iteration throughput (Bps), vector"
0	1550836	1.01489996184	0.01489996184
0	3103255	1.529976544208	0.015076582368
0	4654614	2.044840127968	0.01486358376
0	6204553	2.559754262336	0.014914134368
0	7756529	3.074801577056	0.01504731472
0	9300453	3.589462977504	0.014661400448
0	10852300	4.104358456064	0.01489547856
0	12408990	4.61944925808	0.015090802016
0	13952890	5.134178600448	0.014729342368
0	15501421	5.649055165248	0.0148765648
0	17059787	6.164021839968	0.01496667472
0	18603566	6.678878426688	0.01485658672
0	20158758	7.193794929056	0.014916502368
0	21712306	7.708747813856	0.0149528848
0	23260936	8.223619395536	0.01487158168
0	24808828	8.738486408336	0.0148670128
0	26360366	9.253453499552	0.014967091216
0	27908669	9.76837926296	0.014925763408
0	29464309	10.28338119576	0.0150019328
0	31014000	10.79826647552	0.01488527976
0	32566382	11.31319599528	0.01492951976
0	34108833	11.82803726496	0.01484126968
0	35668799	12.343041422448	0.015004157488
0	37218732	12.857918782896	0.014877360448
0	38772770	13.372984529616	0.01506574672
0	40323666	13.887902397024	0.014917867408
0	41874562	14.402833285472	0.014930888448
0	43423073	14.917604829232	0.01477154376
0	44967809	15.43246472152	0.014859892288
0	46524241	15.947484424592	0.015019703072
0	48075401	16.46243302504	0.014948600448
0	49628646	16.977515444448	0.015082419408
0	51173278	17.492229393936	0.014713949488
0	52730438	18.007565423616	0.01533602968
0	54270728	18.522066038688	0.014500615072
0	55823823	19.037129912016	0.015063873328
0	57373751	19.552017374384	0.014887462368
0	58928068	20.067019745104	0.01500237072
0	60483008	20.581983425552	0.014963680448
0	62028474	21.096847492272	0.01486406672
0	63577140	21.61173230072	0.014884808448
0	65134244	22.126751264128	0.015018963408
0	66683915	22.641638874848	0.01488761072
0	68238012	23.156663935456	0.015025060608
0	69785017	23.671543071904	0.014879136448
0	71333485	24.186441195312	0.014898123408
0	72884967	24.70136024968	0.014919054368
0	74436738	25.216271154832	0.014910905152
0	75984740	25.731163767808	0.014892612976
0	77540912	26.246098685488	0.01493491768
0	79087637	26.760978096208	0.01487941072
0	80643977	27.276020191968	0.01504209576
0	82192950	27.790876210688	0.01485601872
0	83741736	28.305733204016	0.014856993328
0	85282601	28.820547827776	0.01481462376
0	86841873	29.335522027536	0.01497419976
0	88399726	29.850606590944	0.015084563408
1	1550836	1.01489996184	105561612.63296
1	3103255	1.529976544208	104324969.78482
1	4654614	2.044840127968	105819970.83589
1	6204553	2.559754262336	105461300.07885
1	7756529	3.074801577056	104527886.15562
1	9300453	3.589462977504	107279246.99817
1	10852300	4.104358456064	105593384.84255
1	12408990	4.61944925808	104226667.23295
1	13952890	5.134178600448	106784400.87163
1	15501421	5.649055165248	105727634.1108
1	17059787	6.164021839968	105091079.30957
1	18603566	6.678878426688	105869809.10512
1	20158758	7.193794929056	105444558.06036
1	21712306	7.708747813856	105187996.90077
1	23260936	8.223619395536	105763060.97389
1	24808828	8.738486408336	105795563.71943
1	26360366	9.253453499552	105088154.89269
1	27908669	9.76837926296	105379132.51104
1	29464309	10.28338119576	104844090.48946
1	31014000	10.79826647552	105665733.21831
1	32566382	11.31319599528	105352618.52254
1	34108833	11.82803726496	105979072.80936
1	35668799	12.343041422448	104828545.10544
1	37218732	12.857918782896	105721979.74886
1	38772770	13.372984529616	104400002.81646
1	40323666	13.887902397024	105434909.4936
1	41874562	14.402833285472	105342961.03529
1	43423073	14.917604829232	106479324.4061
1	44967809	15.43246472152	105846258.47323
1	46524241	15.947484424592	104720046.22596
1	48075401	16.46243302504	105218144.36551
1	49628646	16.977515444448	104284595.02762
1	51173278	17.492229393936	106896112.51437
1	52730438	18.007565423616	102560051.90517
1	54270728	18.522066038688	108468778.19942
1	55823823	19.037129912016	104412986.33841
1	57373751	19.552017374384	105650241.86935
1	58928068	20.067019745104	104841030.08488
1	60483008	20.581983425552	105112108.31225
1	62028474	21.096847492272	105816532.55658
1	63577140	21.61173230072	105669079.014
1	65134244	22.126751264128	104725203.54915
1	66683915	22.641638874848	105649189.08627
1	68238012	23.156663935456	104682705.84962
1	69785017	23.671543071904	105709360.58668
1	71333485	24.186441195312	105574638.96127
1	72884967	24.70136024968	105426521.09196
1	74436738	25.216271154832	105484139.55869
1	75984740	25.731163767808	105613702.74879
1	77540912	26.246098685488	105314540.9771
1	79087637	26.760978096208	105707412.0473
1	80643977	27.276020191968	104564152.83451
1	82192950	27.790876210688	105873856.89562
1	83741736	28.305733204016	105866911.64731
1	85282601	28.820547827776	106169689.18555
1	86841873	29.335522027536	105038267.50071
1	88399726	29.850606590944	104269772.8438
2	1552694	1.01492816984	0.01492816984
2	3091883	1.529779444368	0.014851274528
2	4653026	2.044810907616	0.015031463248
2	6201910	2.559717787376	0.01490687976
2	7746354	3.074565131136	0.01484734376
2	9302182	3.589483670736	0.0149185396
2	10855415	4.104390955712	0.014907284976
2	12402846	4.619286582432	0.01489562672
2	13955254	5.1342066928	0.014920110368
2	15507159	5.649127381248	0.014920688448
2	17060241	6.164029359968	0.01490197872
2	18606151	6.678906755376	0.014877395408
2	20160752	7.193822645408	0.014915890032
2	21710648	7.708722167248	0.01489952184
2	23258911	8.223590754656	0.014868587408
2	24812529	8.738544870064	0.014954115408
2	26366262	9.253619595552	0.015074725488
2	27910209	9.76840126296	0.014781667408
2	29465715	10.283401802368	0.015000539408
2	31017315	10.79831800352	0.014916201152
2	32565533	11.313181102928	0.014863099408
2	34120346	11.828273857648	0.01509275472
2	35668991	12.343044272016	0.014770414368
2	37218570	12.857917670384	0.014873398368
2	38765791	13.372824293968	0.014906623584
2	40319526	13.887788876336	0.014964582368
2	41866751	14.402665456432	0.014876580096
2	43422139	14.917593611152	0.01492815472
2	44969898	15.432495221872	0.01490161072
2	46526931	15.94755284424	0.015057622368
2	48076559	16.46245519896	0.01490235472
2	49621031	16.97733124376	0.0148760448
2	51176473	17.492285004208	0.014953760448
2	52714752	18.007116645536	0.014831641328
2	54279249	18.522325118688	0.015208473152
2	55827624	19.037170578096	0.014845459408
2	57377348	19.552073946032	0.014903367936
2	58932675	20.067124196752	0.01505025072
2	60483848	20.581999673552	0.0148754768
2	62032217	21.096915801312	0.01491612776
2	63582223	21.611801960368	0.014886159056
2	65137210	22.126864547088	0.01506258672
2	66683996	22.641639868928	0.01477532184
2	68229950	23.156518948688	0.01487907976
2	69781265	23.671475071904	0.014956123216
2	71335611	24.186473839664	0.01499876776
2	72888815	24.70140324672	0.014929407056
2	74440985	25.2163442204	0.01494097368
2	75993181	25.73132774312	0.01498352272
2	77541966	26.246120720448	0.014792977328
2	79085142	26.760949131168	0.01482841072
2	80642640	27.275997023968	0.0150478928
2	82190281	27.790845970688	0.01484894672
2	83742935	28.305744330624	0.014898359936
2	85291200	28.820638355776	0.014894025152
2	86845674	29.335587171536	0.01494881576
2	88394513	29.850469326256	0.01488215472
3	1552694	1.01492816984	105362145.31707
3	3091883	1.529779444368	105907677.95953
3	4653026	2.044810907616	104638116.33304
3	6201910	2.559717787376	105512624.05836
3	7746354	3.074565131136	105935716.54463
3	9302182	3.589483670736	105430158.86086
3	10855415	4.104390955712	105509755.97047
3	12402846	4.619286582432	105592334.55335
3	13955254	5.1342066928	105419059.32368
3	15507159	5.649127381248	105414975.01818
3	17060241	6.164029359968	105547325.59704
3	18606151	6.678906755376	105721731.31557
3	20160752	7.193822645408	105448886.83314
3	21710648	7.708722167248	105564729.98868
3	23258911	8.223590754656	105784359.79424
3	24812529	8.738544870064	105179340.74245
3	26366262	9.253619595552	104337820.36376
3	27910209	9.76840126296	106406398.99317
3	29465715	10.283401802368	104853829.40037
3	31017315	10.79831800352	105446687.39528
3	32565533	11.313181102928	105823419.24951
3	34120346	11.828273857648	104213182.36331
3	35668991	12.343044272016	106487466.14771
3	37218570	12.857917670384	105750142.71009
3	38765791	13.372824293968	105514437.33296
3	40319526	13.887788876336	105105773.17302
3	41866751	14.402665456432	105727525.40235
3	43422139	14.917593611152	105362252.03325
3	44969898	15.432495221872	105549932.1217
3	46526931	15.94755284424	104456331.92014
3	48076559	16.46245519896	105544662.54176
3	49621031	16.97733124376	105731329.87607
3	51176473	17.492285004208	105181837.40267
3	52714752	18.007116645536	106047871.92572
3	54279249	18.522325118688	103420243.72073
3	55827624	19.037170578096	105949163.09241
3	57377348	19.552073946032	105537487.0133
3	58932675	20.067124196752	104507494.87581
3	60483848	20.581999673552	105735367.08417
3	62032217	21.096915801312	105447206.22586
3	63582223	21.611801960368	105659491.75224
3	65137210	22.126864547088	104421905.0312
3	66683996	22.641639868928	106452097.42518
3	68229950	23.156518948688	105709763.33015
3	69781265	23.671475071904	105165220.77843
3	71335611	24.186473839664	104866214.68963
3	72888815	24.70140324672	105353413.84291
3	74440985	25.2163442204	105271854.00945
3	75993181	25.73132774312	104972911.20335
3	77541966	26.246120720448	106325046.34634
3	79085142	26.760949131168	106070976.1619
3	80642640	27.275997023968	104523870.61131
3	82190281	27.790845970688	105924280.66844
3	83742935	28.305744330624	105572962.84669
3	85291200	28.820638355776	105603688.99262
3	86845674	29.335587171536	105216628.87897
3	88394513	29.850469326256	105687921.51356
4	1552810	1.0149292928	0.0149292928
4	3093920	1.529807883168	0.014878590368
4	4654869	2.044843927968	0.0150360448
4	6202857	2.559730298688	0.01488637072
4	7749658	3.074603446096	0.014873147408
4	9306171	3.589553858384	0.014950412288
4	10856597	4.104409957792	0.014856099408
4	12406829	4.619368198432	0.01495824064
4	13956352	5.13422327176	0.014855073328
4	15510139	5.649190117248	0.014966845488
4	17057270	6.163996599968	0.01480648272
4	18612310	6.679052838336	0.015056238368
4	20162434	7.193848158096	0.01479531976
4	21711153	7.708725242208	0.014877084112
4	23261460	8.223629946656	0.014904704448
4	24815339	8.738611142064	0.014981195408
4	26360392	9.253453562864	0.0148424208
4	27917158	9.76862848192	0.015174919056
4	29467722	10.28344219576	0.01481371384
4	31017525	10.79832079256	0.0148785968
4	32569395	11.31328163528	0.01496084272
4	34116673	11.828135047568	0.014853412288
4	35670240	12.343073054448	0.01493800688
4	37221810	12.858016155248	0.0149431008
4	38769708	13.372883264928	0.01486710968
4	40318891	13.887782820336	0.014899555408
4	41869308	14.402695156096	0.01491233576
4	43425115	14.917643483152	0.014948327056
4	44968806	15.432478069872	0.01483458672
4	46526014	15.94752877224	0.015050702368
4	48077247	16.46246578504	0.0149370128
4	49624496	16.977382300448	0.014916515408
4	51178064	17.492311708208	0.01492940776
4	52719098	18.007177223616	0.014865515408
4	54280214	18.522357770336	0.01518054672
4	55832057	19.037292328704	0.014934558368
4	57380907	19.552168467424	0.01487613872
4	58933441	20.067143980752	0.014975513328
4	60482015	20.581969921552	0.0148259408
4	62032979	21.09693156496	0.014961643408
4	63585698	21.61187134368	0.01493977872
4	65133632	22.126744635088	0.014873291408
4	66686228	22.641677225968	0.01493259088
4	68238905	23.156703386416	0.015026160448
4	69784394	23.671529146864	0.014825760448
4	71338568	24.186532927664	0.0150037808
4	72891489	24.70146755368	0.014934626016
4	74442132	25.216378099712	0.014910546032
4	75991403	25.73125567912	0.014877579408
4	77542641	26.246130805488	0.014875126368
4	79089031	26.761000147856	0.014869342368
4	80645601	27.276067699616	0.01506755176
4	82195698	27.790936761296	0.01486906168
4	83745453	28.305790684704	0.014853923408
4	85298066	28.820834006032	0.015043321328
4	86848737	29.335646264576	0.014812258544
4	88395381	29.850477539296	0.01483127472
5	1552810	1.0149292928	105354220.12756
5	3093920	1.529807883168	105713240.37409
5	4654869	2.044843927968	104606232.61777
5	6202857	2.559730298688	105657989.41758
5	7749658	3.074603446096	105751927.07053
5	9306171	3.589553858384	105205392.98187
5	10856597	4.104409957792	105873281.86247
5	12406829	4.619368198432	105150334.04356
5	13956352	5.13422327176	105880594.81573
5	15510139	5.649190117248	105089880.24638
5	17057270	6.163996599968	106228064.40556
5	18612310	6.679052838336	104465933.75826
5	20162434	7.193848158096	106308212.69928
5	21711153	7.708725242208	105723943.49315
5	23261460	8.223629946656	105528023.41619
5	24815339	8.738611142064	104989218.62805
5	26360392	9.253453562864	105970853.48773
5	27917158	9.76862848192	103648921.89511
5	29467722	10.28344219576	106176210.57003
5	31017525	10.79832079256	105713194.67438
5	32569395	11.31328163528	105132045.66327
5	34116673	11.828135047568	105892435.32079
5	35670240	12.343073054448	105292761.78778
5	37221810	12.858016155248	105256868.77519
5	38769708	13.372883264928	105794874.31346
5	40318891	13.887782820336	105564492.15629
5	41869308	14.402695156096	105474019.98679
5	43425115	14.917643483152	105220068.71456
5	44968806	15.432478069872	106026816.22936
5	46526014	15.94752877224	104504358.7696
5	48077247	16.46246578504	105299769.17473
5	49624496	16.977382300448	105444465.88085
5	51178064	17.492311708208	105353408.87494
5	52719098	18.007177223616	105806220.42567
5	54280214	18.522357770336	103610497.63299
5	55832057	19.037292328704	105317074.74994
5	57380907	19.552168467424	105730662.34489
5	58933441	20.067143980752	105029054.13327
5	60482015	20.581969921552	106088647.00175
5	62032979	21.09693156496	105126419.41185
5	63585698	21.61187134368	105280274.19137
5	65133632	22.126744635088	105750903.20317
5	66686228	22.641677225968	105330951.11489
5	68238905	23.156703386416	104675043.59767
5	69784394	23.671529146864	106089937.54598
5	71338568	24.186532927664	104831176.95241
5	72891489	24.70146755368	105316597.70489
5	74442132	25.216378099712	105486680.14065
5	75991403	25.73125567912	105720423.79113
5	77542641	26.246130805488	105737858.02476
5	79089031	26.761000147856	105778988.81291
5	80645601	27.276067699616	104387496.06127
5	82195698	27.790936761296	105780985.63648
5	83745453	28.305790684704	105888791.58707
5	85298066	28.820834006032	104555634.07214
5	86848737	29.335646264576	106186642.32249
5	88395381	29.850477539296	106050493.27817
6	1551174	1.0149025888	0.0149025888
6	3104142	1.530019671328	0.015117082528
6	4653666	2.044823682928	0.0148040116
6	6205670	2.559790939376	0.014967256448
6	7752665	3.074666713744	0.014875774368
6	9307330	3.589600122384	0.01493340864
6	10858044	4.104477877104	0.01487775472
6	12405055	4.61932874104	0.014850863936
6	13959849	5.13435191176	0.01502317072
6	15510553	5.649202675856	0.014850764096
6	17061344	6.164070741008	0.014868065152
6	18610519	6.678984826688	0.01491408568
6	20162996	7.193862325408	0.01487749872
6	21713825	7.708807232816	0.014944907408
6	23264565	8.223758573616	0.0149513408
6	24814734	8.738595113024	0.014836539408
6	26361877	9.253472312592	0.014877199568
6	27914118	9.76851451392	0.015042201328
6	29467839	10.283445882368	0.014931368448
6	31018524	10.79836426752	0.014918385152
6	32569029	11.31327595024	0.01491168272
6	34116317	11.828130012608	0.014854062368
6	35671073	12.343099646448	0.01496963384
6	37221286	12.858005582208	0.01490593576
6	38769002	13.372869209616	0.014863627408
6	40321261	13.887814679984	0.014945470368
6	41873153	14.402771150864	0.01495647088
6	43425276	14.917647024192	0.014875873328
6	44976222	15.43272488656	0.015077862368
6	46525171	15.9475105592	0.01478567264
6	48077723	16.462482412688	0.014971853488
6	49625605	16.97740402776	0.014921615072
6	51179410	17.492360871856	0.014956844096
6	52719979	18.007199254928	0.014838383072
6	54281202	18.522397114336	0.015197859408
6	55830308	19.037209945408	0.014812831072
6	57382994	19.552258474032	0.015048528624
6	58933703	20.067149513792	0.01489103976
6	60484376	20.582012600864	0.014863087072
6	62035189	21.09703691192	0.015024311056
6	63585981	21.61187902072	0.0148421088
6	65132750	22.126733422048	0.014854401328
6	66687974	22.641729217456	0.014995795408
6	68235006	23.156598947296	0.01486972984
6	69789898	23.671708191904	0.015109244608
6	71340794	24.186621686272	0.014913494368
6	72891274	24.701464008992	0.01484232272
6	74441590	25.2163594524	0.014895443408
6	75989812	25.73122234608	0.01486289368
6	77543982	26.246168981488	0.014946635408
6	79094878	26.761217086816	0.015048105328
6	80643189	27.276006159968	0.014789073152
6	82196309	27.790949030336	0.014942870368
6	83747025	28.305861393056	0.01491236272
6	85295776	28.820728243072	0.014866850016
6	86848601	29.335644759184	0.014916516112
6	88395866	29.850482158256	0.014837399072
7	1551174	1.0149025888	105543004.71607
7	3104142	1.530019671328	104045472.86732
7	4653666	2.044823682928	106245796.2408
7	6205670	2.559790939376	105086994.76517
7	7752665	3.074666713744	105733252.00357
7	9307330	3.589600122384	105325183.14586
7	10858044	4.104477877104	105719178.03468
7	12405055	4.61932874104	105910606.06159
7	13959849	5.13435191176	104695874.74674
7	15510553	5.649202675856	105911318.08657
7	17061344	6.164070741008	105788075.57811
7	18610519	6.678984826688	105461644.36411
7	20162996	7.193862325408	105720997.16504
7	21713825	7.708807232816	105244144.84884
7	23264565	8.223758573616	105198859.48958
7	24814734	8.738595113024	106012861.67527
7	26361877	9.253472312592	105723123.01188
7	27914118	9.76851451392	104563418.99056
7	29467839	10.283445882368	105339574.56597
7	31018524	10.79836426752	105431250.36487
7	32569029	11.31327595024	105478639.10023
7	34116317	11.828130012608	105887800.99567
7	35671073	12.343099646448	105070305.4471
7	37221286	12.858005582208	105519306.22301
7	38769002	13.372869209616	105819660.08872
7	40321261	13.887814679984	105240180.55448
7	41873153	14.402771150864	105162776.207
7	43425276	14.917647024192	105732548.62553
7	44976222	15.43272488656	104316113.35955
7	46525171	15.9475105592	106377574.98735
7	48077723	16.462482412688	105054728.27801
7	49625605	16.97740402776	105408428.80684
7	51179410	17.492360871856	105160152.09523
7	52719979	18.007199254928	105999689.61362
7	54281202	18.522397114336	103492469.4179
7	55830308	19.037209945408	106182538.12218
7	57382994	19.552258474032	104519454.3134
7	58933703	20.067149513792	105624860.67796
7	60484376	20.582012600864	105823507.08037
7	62035189	21.09703691192	104687928.39402
7	63585981	21.61187902072	105973081.12982
7	65132750	22.126733422048	105885384.76035
7	66687974	22.641729217456	104887000.46954
7	68235006	23.156598947296	105776232.44835
7	69789898	23.671708191904	104099446.45196
7	71340794	24.186621686272	105465825.86137
7	72891274	24.701464008992	105971553.75692
7	74441590	25.2163594524	105593634.0341
7	75989812	25.73122234608	105824884.02756
7	77543982	26.246168981488	105231977.43608
7	79094878	26.761217086816	104522394.39562
7	80643189	27.276006159968	106353115.157
7	82196309	27.790949030336	105258491.92725
7	83747025	28.305861393056	105473829.30074
7	85295776	28.820728243072	105796722.12387
7	86848601	29.335644759184	105444460.90429
7	88395866	29.850482158256	106006719.39654
